ITEM: TIMESTEP
0
ITEM: NUMBER OF ATOMS
3
ITEM: BOX BOUNDS pp pp pp
-1.0000000000000000e+02 1.0000000000000000e+02
-1.0000000000000000e+02 1.0000000000000000e+02
-1.0000000000000000e+02 1.0000000000000000e+02
ITEM: ATOMS fx fy fz
0.0227707 -0.049526 5.18925e-05
0.129026 -0.07545 0.00011998
-0.151796 0.124976 -0.000171873
