 Entering Gaussian System, Link 0=g16
 Initial command:
 /opt/g16/l1.exe "/home/jh-li/scratch/g16/Gau-1277537.inp" -scrdir="/home/jh-li/scratch/g16/"
 Entering Link 1 = /opt/g16/l1.exe PID=   1277542.
  
 Copyright (c) 1988,1990,1992,1993,1995,1998,2003,2009,2016,
            Gaussian, Inc.  All Rights Reserved.
  
 This is part of the Gaussian(R) 16 program.  It is based on
 the Gaussian(R) 09 system (copyright 2009, Gaussian, Inc.),
 the Gaussian(R) 03 system (copyright 2003, Gaussian, Inc.),
 the Gaussian(R) 98 system (copyright 1998, Gaussian, Inc.),
 the Gaussian(R) 94 system (copyright 1995, Gaussian, Inc.),
 the Gaussian 92(TM) system (copyright 1992, Gaussian, Inc.),
 the Gaussian 90(TM) system (copyright 1990, Gaussian, Inc.),
 the Gaussian 88(TM) system (copyright 1988, Gaussian, Inc.),
 the Gaussian 86(TM) system (copyright 1986, Carnegie Mellon
 University), and the Gaussian 82(TM) system (copyright 1983,
 Carnegie Mellon University). Gaussian is a federally registered
 trademark of Gaussian, Inc.
  
 This software contains proprietary and confidential information,
 including trade secrets, belonging to Gaussian, Inc.
  
 This software is provided under written license and may be
 used, copied, transmitted, or stored only in accord with that
 written license.
  
 The following legend is applicable only to US Government
 contracts under FAR:
  
                    RESTRICTED RIGHTS LEGEND
  
 Use, reproduction and disclosure by the US Government is
 subject to restrictions as set forth in subparagraphs (a)
 and (c) of the Commercial Computer Software - Restricted
 Rights clause in FAR 52.227-19.
  
 Gaussian, Inc.
 340 Quinnipiac St., Bldg. 40, Wallingford CT 06492
  
  
 ---------------------------------------------------------------
 Warning -- This program may not be used in any manner that
 competes with the business of Gaussian, Inc. or will provide
 assistance to any competitor of Gaussian, Inc.  The licensee
 of this program is prohibited from giving any competitor of
 Gaussian, Inc. access to this program.  By using this program,
 the user acknowledges that Gaussian, Inc. is engaged in the
 business of creating and licensing software in the field of
 computational chemistry and represents and warrants to the
 licensee that it is not a competitor of Gaussian, Inc. and that
 it will not use this program in any manner prohibited above.
 ---------------------------------------------------------------
  

 Cite this work as:
 Gaussian 16, Revision A.03,
 M. J. Frisch, G. W. Trucks, H. B. Schlegel, G. E. Scuseria, 
 M. A. Robb, J. R. Cheeseman, G. Scalmani, V. Barone, 
 G. A. Petersson, H. Nakatsuji, X. Li, M. Caricato, A. V. Marenich, 
 J. Bloino, B. G. Janesko, R. Gomperts, B. Mennucci, H. P. Hratchian, 
 J. V. Ortiz, A. F. Izmaylov, J. L. Sonnenberg, D. Williams-Young, 
 F. Ding, F. Lipparini, F. Egidi, J. Goings, B. Peng, A. Petrone, 
 T. Henderson, D. Ranasinghe, V. G. Zakrzewski, J. Gao, N. Rega, 
 G. Zheng, W. Liang, M. Hada, M. Ehara, K. Toyota, R. Fukuda, 
 J. Hasegawa, M. Ishida, T. Nakajima, Y. Honda, O. Kitao, H. Nakai, 
 T. Vreven, K. Throssell, J. A. Montgomery, Jr., J. E. Peralta, 
 F. Ogliaro, M. J. Bearpark, J. J. Heyd, E. N. Brothers, K. N. Kudin, 
 V. N. Staroverov, T. A. Keith, R. Kobayashi, J. Normand, 
 K. Raghavachari, A. P. Rendell, J. C. Burant, S. S. Iyengar, 
 J. Tomasi, M. Cossi, J. M. Millam, M. Klene, C. Adamo, R. Cammi, 
 J. W. Ochterski, R. L. Martin, K. Morokuma, O. Farkas, 
 J. B. Foresman, and D. J. Fox, Gaussian, Inc., Wallingford CT, 2016.
 
 ******************************************
 Gaussian 16:  ES64L-G16RevA.03 25-Dec-2016
                 9-Jan-2025 
 ******************************************
 %nproc=1
 Will use up to    1 processors via shared memory.
 %chk=H2O-opt-freq.chk
 -----------------------------------------------------------------
 #p external="python3 -u ../../src/reaxff_chon2017.py" opt=nomicro
 -----------------------------------------------------------------
 1/18=20,19=15,26=1,38=1/1,3;
 2/9=110,12=2,17=6,18=5,40=1/2;
 3/11=9,25=1,30=1,41=9900000,43=2,71=1/1;
 4/20=17,22=1,24=3,113=1,114=1/2;
 6/7=2,8=2,9=2,10=2/1;
 7/44=-1/16;
 1/18=20,19=15,26=1/3(2);
 2/9=110/2;
 99//99;
 2/9=110/2;
 3/11=9,25=1,30=1,41=9900000,43=2,71=1/1;
 4/16=2,20=17,22=1,24=3,113=1,114=1/2;
 7/44=-1/16;
 1/18=20,19=15,26=1/3(-4);
 2/9=110/2;
 6/7=2,8=2,9=2,10=2/1;
 99//99;
 Leave Link    1 at Thu Jan  9 21:25:08 2025, MaxMem=           0 cpu:               0.0 elap:               0.0
 (Enter /opt/g16/l101.exe)
 -------------------
 Title Card Required
 -------------------
 Symbolic Z-matrix:
 Charge =  0 Multiplicity = 1
 O                     0.        0.       -0.13207 
 H                     0.        0.75171   0.45402 
 H                     0.       -0.75171   0.45402 
 
 ITRead=  0  0  0
 MicOpt= -1 -1 -1
 NAtoms=      3 NQM=        3 NQMF=       0 NMMI=      0 NMMIF=      0
                NMic=       0 NMicF=      0.
                    Isotopes and Nuclear Properties:
 (Nuclear quadrupole moments (NQMom) in fm**2, nuclear magnetic moments (NMagM)
  in nuclear magnetons)

  Atom         1           2           3
 IAtWgt=          16           1           1
 AtmWgt=  15.9949146   1.0078250   1.0078250
 NucSpn=           0           1           1
 AtZEff=  -0.0000000  -0.0000000  -0.0000000
 NQMom=    0.0000000   0.0000000   0.0000000
 NMagM=    0.0000000   2.7928460   2.7928460
 AtZNuc=   8.0000000   1.0000000   1.0000000
 Leave Link  101 at Thu Jan  9 21:25:09 2025, MaxMem=   104857600 cpu:               0.1 elap:               0.1
 (Enter /opt/g16/l103.exe)

 GradGradGradGradGradGradGradGradGradGradGradGradGradGradGradGradGradGrad
 Berny optimization.
 Initialization pass.
                           ----------------------------
                           !    Initial Parameters    !
                           ! (Angstroms and Degrees)  !
 --------------------------                            --------------------------
 ! Name  Definition              Value          Derivative Info.                !
 --------------------------------------------------------------------------------
 ! R1    R(1,2)                  0.9532         estimate D2E/DX2                !
 ! R2    R(1,3)                  0.9532         estimate D2E/DX2                !
 ! A1    A(2,1,3)              104.1146         estimate D2E/DX2                !
 --------------------------------------------------------------------------------
 Trust Radius=3.00D-01 FncErr=1.00D-07 GrdErr=1.00D-07 EigMax=2.50D+02 EigMin=1.00D-04
 Number of steps in this run=     20 maximum allowed number of steps=    100.
 GradGradGradGradGradGradGradGradGradGradGradGradGradGradGradGradGradGrad

 Leave Link  103 at Thu Jan  9 21:25:09 2025, MaxMem=   104857600 cpu:               0.0 elap:               0.0
 (Enter /opt/g16/l202.exe)
                          Input orientation:                          
 ---------------------------------------------------------------------
 Center     Atomic      Atomic             Coordinates (Angstroms)
 Number     Number       Type             X           Y           Z
 ---------------------------------------------------------------------
      1          8           0        0.000000    0.000000   -0.132072
      2          1           0        0.000000    0.751706    0.454015
      3          1           0        0.000000   -0.751706    0.454015
 ---------------------------------------------------------------------
                    Distance matrix (angstroms):
                    1          2          3
     1  O    0.000000
     2  H    0.953184   0.000000
     3  H    0.953184   1.503412   0.000000
 Stoichiometry    H2O
 Framework group  C2V[C2(O),SGV(H2)]
 Deg. of freedom     2
 Full point group                 C2V     NOp   4
 Largest Abelian subgroup         C2V     NOp   4
 Largest concise Abelian subgroup C2      NOp   2
                         Standard orientation:                         
 ---------------------------------------------------------------------
 Center     Atomic      Atomic             Coordinates (Angstroms)
 Number     Number       Type             X           Y           Z
 ---------------------------------------------------------------------
      1          8           0       -0.000000    0.000000    0.117217
      2          1           0        0.000000    0.751706   -0.468870
      3          1           0       -0.000000   -0.751706   -0.468870
 ---------------------------------------------------------------------
 Rotational constants (GHZ):         821.9081510         443.7169585         288.1537212
 Leave Link  202 at Thu Jan  9 21:25:09 2025, MaxMem=   104857600 cpu:               0.0 elap:               0.0
 (Enter /opt/g16/l301.exe)
 Standard basis: STO-3G (5D, 7F)
 Ernie: Thresh=  0.10000D-02 Tol=  0.10000D-05 Strict=F.
 There are     4 symmetry adapted cartesian basis functions of A1  symmetry.
 There are     0 symmetry adapted cartesian basis functions of A2  symmetry.
 There are     1 symmetry adapted cartesian basis functions of B1  symmetry.
 There are     2 symmetry adapted cartesian basis functions of B2  symmetry.
 There are     4 symmetry adapted basis functions of A1  symmetry.
 There are     0 symmetry adapted basis functions of A2  symmetry.
 There are     1 symmetry adapted basis functions of B1  symmetry.
 There are     2 symmetry adapted basis functions of B2  symmetry.
     7 basis functions,    21 primitive gaussians,     7 cartesian basis functions
     5 alpha electrons        5 beta electrons
       nuclear repulsion energy         9.2346707176 Hartrees.
 IExCor=    0 DFT=F Ex=HF Corr=None ExCW=0 ScaHFX=  1.000000
 ScaDFX=  1.000000  1.000000  1.000000  1.000000 ScalE2=  1.000000  1.000000
 IRadAn=      5 IRanWt=     -1 IRanGd=            0 ICorTp=0 IEmpDi=  4
 NAtoms=    3 NActive=    3 NUniq=    2 SFac= 2.25D+00 NAtFMM=   60 NAOKFM=F Big=F
 Integral buffers will be    131072 words long.
 Raffenetti 1 integral format.
 Two-electron integral symmetry is turned on.
 Leave Link  301 at Thu Jan  9 21:25:09 2025, MaxMem=   104857600 cpu:               0.0 elap:               0.0
 (Enter /opt/g16/l402.exe)
 External calculation of energy and first derivatives.
 Running external command "python3 -u ../../src/reaxff_chon2017.py R"
         input file       "/home/jh-li/scratch/g16/Gau-1277542.EIn"
         output file      "/home/jh-li/scratch/g16/Gau-1277542.EOu"
         message file     "/home/jh-li/scratch/g16/Gau-1277542.EMs"
         fchk file        "/home/jh-li/scratch/g16/Gau-1277542.EFC"
         mat. el file     "/home/jh-li/scratch/g16/Gau-1277542.EUF"
 Recovered energy=-0.386433246376     dipole=      0.000000000000      0.000000000000      0.000000000000
 Energy=   -0.386433246     NIter=   0.
 Dipole moment=       0.000000       0.000000       0.000000
 Leave Link  402 at Thu Jan  9 21:25:09 2025, MaxMem=   104857600 cpu:               0.0 elap:               0.7
 (Enter /opt/g16/l601.exe)
 Leave Link  601 at Thu Jan  9 21:25:09 2025, MaxMem=   104857600 cpu:               0.0 elap:               0.0
 (Enter /opt/g16/l716.exe)
 Dipole        = 0.00000000D+00 0.00000000D+00 0.00000000D+00
 ***** Axes restored to original set *****
 -------------------------------------------------------------------
 Center     Atomic                   Forces (Hartrees/Bohr)
 Number     Number              X              Y              Z
 -------------------------------------------------------------------
      1        8           0.000000000    0.000000000    0.000185923
      2        1           0.000000000   -0.000084113   -0.000092962
      3        1          -0.000000000    0.000084113   -0.000092962
 -------------------------------------------------------------------
 Cartesian Forces:  Max     0.000185923 RMS     0.000085635
 Leave Link  716 at Thu Jan  9 21:25:09 2025, MaxMem=   104857600 cpu:               0.0 elap:               0.0
 (Enter /opt/g16/l103.exe)

 GradGradGradGradGradGradGradGradGradGradGradGradGradGradGradGradGradGrad
 Berny optimization.
 FormGI is forming the generalized inverse of G from B-inverse, IUseBI=4.
 Internal  Forces:  Max     0.000123493 RMS     0.000103302
 Search for a local minimum.
 Step number   1 out of a maximum of   20
 All quantities printed in internal units (Hartrees-Bohrs-Radians)
 RMS Force = .10330D-03 SwitMx=.10000D-02 MixMth= 2
 Mixed Optimization -- En-DIIS/RFO-DIIS
 Second derivative matrix not updated -- first step.
 The second derivative matrix:
                          R1        R2        A1
           R1           0.56966
           R2           0.00000   0.56966
           A1           0.00000   0.00000   0.16000
 ITU=  0
     Eigenvalues ---    0.16000   0.56966   0.56966
 RFO step:  Lambda=-6.29980297D-08 EMin= 1.60000000D-01
 Linear search not attempted -- first point.
 Iteration  1 RMS(Cart)=  0.00014725 RMS(Int)=  0.00000002
 Iteration  2 RMS(Cart)=  0.00000002 RMS(Int)=  0.00000000
 ITry= 1 IFail=0 DXMaxC= 2.04D-04 DCOld= 1.00D+10 DXMaxT= 3.00D-01 DXLimC= 3.00D+00 Rises=F
 ClnCor:  largest displacement from symmetrization is 1.32D-19 for atom     1.
 Variable       Old X    -DE/DX   Delta X   Delta X   Delta X     New X
                                 (Linear)    (Quad)   (Total)
    R1        1.80126  -0.00012   0.00000  -0.00022  -0.00022   1.80104
    R2        1.80126  -0.00012   0.00000  -0.00022  -0.00022   1.80104
    A1        1.81714   0.00004   0.00000   0.00024   0.00024   1.81739
         Item               Value     Threshold  Converged?
 Maximum Force            0.000123     0.000450     YES
 RMS     Force            0.000103     0.000300     YES
 Maximum Displacement     0.000204     0.001800     YES
 RMS     Displacement     0.000147     0.001200     YES
 Predicted change in Energy=-3.149901D-08
 Optimization completed.
    -- Stationary point found.
                           ----------------------------
                           !   Optimized Parameters   !
                           ! (Angstroms and Degrees)  !
 --------------------------                            --------------------------
 ! Name  Definition              Value          Derivative Info.                !
 --------------------------------------------------------------------------------
 ! R1    R(1,2)                  0.9532         -DE/DX =   -0.0001              !
 ! R2    R(1,3)                  0.9532         -DE/DX =   -0.0001              !
 ! A1    A(2,1,3)              104.1146         -DE/DX =    0.0                 !
 --------------------------------------------------------------------------------
 Largest change from initial coordinates is atom    3       0.000 Angstoms.
 GradGradGradGradGradGradGradGradGradGradGradGradGradGradGradGradGradGrad

 Leave Link  103 at Thu Jan  9 21:25:09 2025, MaxMem=   104857600 cpu:               0.0 elap:               0.0
 (Enter /opt/g16/l202.exe)
                          Input orientation:                          
 ---------------------------------------------------------------------
 Center     Atomic      Atomic             Coordinates (Angstroms)
 Number     Number       Type             X           Y           Z
 ---------------------------------------------------------------------
      1          8           0       -0.000000   -0.000000   -0.132072
      2          1           0       -0.000000    0.751706    0.454015
      3          1           0        0.000000   -0.751706    0.454015
 ---------------------------------------------------------------------
                    Distance matrix (angstroms):
                    1          2          3
     1  O    0.000000
     2  H    0.953184   0.000000
     3  H    0.953184   1.503412   0.000000
 Stoichiometry    H2O
 Framework group  C2V[C2(O),SGV(H2)]
 Deg. of freedom     2
 Full point group                 C2V     NOp   4
 RotChk:  IX=0 Diff= 9.55D-16
 Largest Abelian subgroup         C2V     NOp   4
 Largest concise Abelian subgroup C2      NOp   2
                         Standard orientation:                         
 ---------------------------------------------------------------------
 Center     Atomic      Atomic             Coordinates (Angstroms)
 Number     Number       Type             X           Y           Z
 ---------------------------------------------------------------------
      1          8           0       -0.000000    0.000000    0.117217
      2          1           0        0.000000    0.751706   -0.468870
      3          1           0       -0.000000   -0.751706   -0.468870
 ---------------------------------------------------------------------
 Rotational constants (GHZ):         821.9081510         443.7169585         288.1537212
 Leave Link  202 at Thu Jan  9 21:25:09 2025, MaxMem=   104857600 cpu:               0.0 elap:               0.0
 (Enter /opt/g16/l9999.exe)
 1\1\GINC-DESKTOP-1D9QDE1\FOpt\RExternal='python3 -u ../../src/reaxff_c
 hon2017.py'\ZDO\H2O1\JH-LI\09-Jan-2025\0\\#p external="python3 -u ../.
 ./src/reaxff_chon2017.py" opt=nomicro\\Title Card Required\\0,1\O,0.,0
 .,-0.132072\H,0.,0.751706,0.454015\H,0.,-0.751706,0.454015\\Version=ES
 64L-G16RevA.03\HF=-0.3864332\RMSD=0.000e+00\RMSF=8.564e-05\Dipole=0.,0
 .,0.\PG=C02V [C2(O1),SGV(H2)]\\@


 THERE IS SOMETHING FASCINATING ABOUT SCIENCE.
 ONE GETS SUCH WHOLESALE CONJECTURE OUT OF SUCH TRIFLING INVESTMENTS.

                                                       -- MARK TWAIN
 Job cpu time:       0 days  0 hours  0 minutes  0.4 seconds.
 Elapsed time:       0 days  0 hours  0 minutes  1.0 seconds.
 File lengths (MBytes):  RWF=      6 Int=      0 D2E=      0 Chk=      1 Scr=      1
 Normal termination of Gaussian 16 at Thu Jan  9 21:25:09 2025.
 Initial command:
 /opt/g16/l1.exe "/home/jh-li/scratch/g16/Gau-1277537.inp" -scrdir="/home/jh-li/scratch/g16/"
 Entering Link 1 = /opt/g16/l1.exe PID=   1277591.
  
 Copyright (c) 1988,1990,1992,1993,1995,1998,2003,2009,2016,
            Gaussian, Inc.  All Rights Reserved.
  
 This is part of the Gaussian(R) 16 program.  It is based on
 the Gaussian(R) 09 system (copyright 2009, Gaussian, Inc.),
 the Gaussian(R) 03 system (copyright 2003, Gaussian, Inc.),
 the Gaussian(R) 98 system (copyright 1998, Gaussian, Inc.),
 the Gaussian(R) 94 system (copyright 1995, Gaussian, Inc.),
 the Gaussian 92(TM) system (copyright 1992, Gaussian, Inc.),
 the Gaussian 90(TM) system (copyright 1990, Gaussian, Inc.),
 the Gaussian 88(TM) system (copyright 1988, Gaussian, Inc.),
 the Gaussian 86(TM) system (copyright 1986, Carnegie Mellon
 University), and the Gaussian 82(TM) system (copyright 1983,
 Carnegie Mellon University). Gaussian is a federally registered
 trademark of Gaussian, Inc.
  
 This software contains proprietary and confidential information,
 including trade secrets, belonging to Gaussian, Inc.
  
 This software is provided under written license and may be
 used, copied, transmitted, or stored only in accord with that
 written license.
  
 The following legend is applicable only to US Government
 contracts under FAR:
  
                    RESTRICTED RIGHTS LEGEND
  
 Use, reproduction and disclosure by the US Government is
 subject to restrictions as set forth in subparagraphs (a)
 and (c) of the Commercial Computer Software - Restricted
 Rights clause in FAR 52.227-19.
  
 Gaussian, Inc.
 340 Quinnipiac St., Bldg. 40, Wallingford CT 06492
  
  
 ---------------------------------------------------------------
 Warning -- This program may not be used in any manner that
 competes with the business of Gaussian, Inc. or will provide
 assistance to any competitor of Gaussian, Inc.  The licensee
 of this program is prohibited from giving any competitor of
 Gaussian, Inc. access to this program.  By using this program,
 the user acknowledges that Gaussian, Inc. is engaged in the
 business of creating and licensing software in the field of
 computational chemistry and represents and warrants to the
 licensee that it is not a competitor of Gaussian, Inc. and that
 it will not use this program in any manner prohibited above.
 ---------------------------------------------------------------
  

 Cite this work as:
 Gaussian 16, Revision A.03,
 M. J. Frisch, G. W. Trucks, H. B. Schlegel, G. E. Scuseria, 
 M. A. Robb, J. R. Cheeseman, G. Scalmani, V. Barone, 
 G. A. Petersson, H. Nakatsuji, X. Li, M. Caricato, A. V. Marenich, 
 J. Bloino, B. G. Janesko, R. Gomperts, B. Mennucci, H. P. Hratchian, 
 J. V. Ortiz, A. F. Izmaylov, J. L. Sonnenberg, D. Williams-Young, 
 F. Ding, F. Lipparini, F. Egidi, J. Goings, B. Peng, A. Petrone, 
 T. Henderson, D. Ranasinghe, V. G. Zakrzewski, J. Gao, N. Rega, 
 G. Zheng, W. Liang, M. Hada, M. Ehara, K. Toyota, R. Fukuda, 
 J. Hasegawa, M. Ishida, T. Nakajima, Y. Honda, O. Kitao, H. Nakai, 
 T. Vreven, K. Throssell, J. A. Montgomery, Jr., J. E. Peralta, 
 F. Ogliaro, M. J. Bearpark, J. J. Heyd, E. N. Brothers, K. N. Kudin, 
 V. N. Staroverov, T. A. Keith, R. Kobayashi, J. Normand, 
 K. Raghavachari, A. P. Rendell, J. C. Burant, S. S. Iyengar, 
 J. Tomasi, M. Cossi, J. M. Millam, M. Klene, C. Adamo, R. Cammi, 
 J. W. Ochterski, R. L. Martin, K. Morokuma, O. Farkas, 
 J. B. Foresman, and D. J. Fox, Gaussian, Inc., Wallingford CT, 2016.
 
 ******************************************
 Gaussian 16:  ES64L-G16RevA.03 25-Dec-2016
                 9-Jan-2025 
 ******************************************
 %nproc=1
 Will use up to    1 processors via shared memory.
 %chk=H2O-opt-freq.chk
 ----------------------------------------------------------------------
 #p external="python3 -u ../../src/reaxff_chon2017.py" freq=num geom=al
 lcheck
 ----------------------------------------------------------------------
 1/10=4,18=10,29=7,30=1,38=11/1,6,3;
 2/12=2,40=1/2;
 3/11=9,14=-4,25=1,30=1,41=9900000,43=2,71=1/1;
 4/20=17,22=1,24=3,113=1,114=1/2;
 6/7=2,8=2,9=2,10=2/1;
 7/44=-1/16;
 1/10=4,18=10,30=1,38=10/6(3);
 7/8=1,25=1,44=-1/16;
 1/10=4,18=10,30=1,38=10/3;
 99//99;
 3/11=9,14=-2,25=1,30=1,41=9900000,43=2,71=1/1;
 4/16=2,20=17,22=1,24=3,113=1,114=1/2;
 6/7=2,8=2,9=2,10=2/1;
 7/7=1,44=-1/16;
 1/10=4,18=10,30=1,38=10/6(-4);
 7/8=1,25=1,44=-1/16;
 1/10=4,18=10,30=1,38=10/3;
 99//99;
 Leave Link    1 at Thu Jan  9 21:25:09 2025, MaxMem=           0 cpu:               0.0 elap:               0.0
 (Enter /opt/g16/l101.exe)
 Structure from the checkpoint file:  "H2O-opt-freq.chk"
 -------------------
 Title Card Required
 -------------------
 Charge =  0 Multiplicity = 1
 Redundant internal coordinates found in file.  (old form).
 O,0,0.,0.,-0.132072
 H,0,0.,0.751706,0.454015
 H,0,0.,-0.751706,0.454015
 Recover connectivity data from disk.
 ITRead=  0  0  0
 MicOpt= -1 -1 -1
 NAtoms=      3 NQM=        3 NQMF=       0 NMMI=      0 NMMIF=      0
                NMic=       0 NMicF=      0.
                    Isotopes and Nuclear Properties:
 (Nuclear quadrupole moments (NQMom) in fm**2, nuclear magnetic moments (NMagM)
  in nuclear magnetons)

  Atom         1           2           3
 IAtWgt=          16           1           1
 AtmWgt=  15.9949146   1.0078250   1.0078250
 NucSpn=           0           1           1
 AtZEff=   5.6000000   1.0000000   1.0000000
 NQMom=    0.0000000   0.0000000   0.0000000
 NMagM=    0.0000000   2.7928460   2.7928460
 AtZNuc=   8.0000000   1.0000000   1.0000000
 Leave Link  101 at Thu Jan  9 21:25:10 2025, MaxMem=   104857600 cpu:               0.1 elap:               0.1
 (Enter /opt/g16/l106.exe)
 Numerical evaluation of force-constants.
 Nuclear step= 0.001000 Angstroms, electric field step= 0.000333 atomic units, NStep=1.
 Leave Link  106 at Thu Jan  9 21:25:10 2025, MaxMem=   104857600 cpu:               0.0 elap:               0.0
 (Enter /opt/g16/l103.exe)

 GradGradGradGradGradGradGradGradGradGradGradGradGradGradGradGradGradGrad
 Berny optimization.
 Initialization pass.
 Trust Radius=3.00D-01 FncErr=1.00D-07 GrdErr=1.00D-07 EigMax=2.50D+02 EigMin=1.00D-04
 Number of steps in this run=      2 maximum allowed number of steps=      2.
 GradGradGradGradGradGradGradGradGradGradGradGradGradGradGradGradGradGrad

 Leave Link  103 at Thu Jan  9 21:25:10 2025, MaxMem=   104857600 cpu:               0.0 elap:               0.0
 (Enter /opt/g16/l202.exe)
                          Input orientation:                          
 ---------------------------------------------------------------------
 Center     Atomic      Atomic             Coordinates (Angstroms)
 Number     Number       Type             X           Y           Z
 ---------------------------------------------------------------------
      1          8           0        0.000000   -0.000000   -0.132072
      2          1           0       -0.000000    0.751706    0.454015
      3          1           0        0.000000   -0.751706    0.454015
 ---------------------------------------------------------------------
                    Distance matrix (angstroms):
                    1          2          3
     1  O    0.000000
     2  H    0.953184   0.000000
     3  H    0.953184   1.503412   0.000000
 Stoichiometry    H2O
 Framework group  C2V[C2(O),SGV(H2)]
 Deg. of freedom     2
 Full point group                 C2V     NOp   4
 RotChk:  IX=0 Diff= 7.91D-16
 Largest Abelian subgroup         C2V     NOp   4
 Largest concise Abelian subgroup C2      NOp   2
                         Standard orientation:                         
 ---------------------------------------------------------------------
 Center     Atomic      Atomic             Coordinates (Angstroms)
 Number     Number       Type             X           Y           Z
 ---------------------------------------------------------------------
      1          8           0        0.000000    0.000000    0.117217
      2          1           0       -0.000000    0.751706   -0.468870
      3          1           0       -0.000000   -0.751706   -0.468870
 ---------------------------------------------------------------------
 Rotational constants (GHZ):         821.9081510         443.7169585         288.1537212
 Leave Link  202 at Thu Jan  9 21:25:10 2025, MaxMem=   104857600 cpu:               0.0 elap:               0.0
 (Enter /opt/g16/l301.exe)
 Standard basis: STO-3G (5D, 7F)
 Ernie: Thresh=  0.10000D-02 Tol=  0.10000D-05 Strict=F.
 There are     4 symmetry adapted cartesian basis functions of A1  symmetry.
 There are     0 symmetry adapted cartesian basis functions of A2  symmetry.
 There are     1 symmetry adapted cartesian basis functions of B1  symmetry.
 There are     2 symmetry adapted cartesian basis functions of B2  symmetry.
 There are     4 symmetry adapted basis functions of A1  symmetry.
 There are     0 symmetry adapted basis functions of A2  symmetry.
 There are     1 symmetry adapted basis functions of B1  symmetry.
 There are     2 symmetry adapted basis functions of B2  symmetry.
     7 basis functions,    21 primitive gaussians,     7 cartesian basis functions
     5 alpha electrons        5 beta electrons
       nuclear repulsion energy         9.2346707176 Hartrees.
 IExCor=    0 DFT=F Ex=HF Corr=None ExCW=0 ScaHFX=  1.000000
 ScaDFX=  1.000000  1.000000  1.000000  1.000000 ScalE2=  1.000000  1.000000
 IRadAn=      5 IRanWt=     -1 IRanGd=            0 ICorTp=0 IEmpDi=  4
 NAtoms=    3 NActive=    3 NUniq=    2 SFac= 2.25D+00 NAtFMM=   60 NAOKFM=F Big=F
 Integral buffers will be    131072 words long.
 Raffenetti 1 integral format.
 Two-electron integral symmetry is turned on.
 Leave Link  301 at Thu Jan  9 21:25:10 2025, MaxMem=   104857600 cpu:               0.0 elap:               0.0
 (Enter /opt/g16/l402.exe)
 External calculation of energy and first derivatives.
 Running external command "python3 -u ../../src/reaxff_chon2017.py R"
         input file       "/home/jh-li/scratch/g16/Gau-1277591.EIn"
         output file      "/home/jh-li/scratch/g16/Gau-1277591.EOu"
         message file     "/home/jh-li/scratch/g16/Gau-1277591.EMs"
         fchk file        "/home/jh-li/scratch/g16/Gau-1277591.EFC"
         mat. el file     "/home/jh-li/scratch/g16/Gau-1277591.EUF"
 Recovered energy=-0.386433246376     dipole=      0.000000000000      0.000000000000      0.000000000000
 Energy=   -0.386433246     NIter=   0.
 Dipole moment=       0.000000       0.000000       0.000000
 Leave Link  402 at Thu Jan  9 21:25:11 2025, MaxMem=   104857600 cpu:               0.0 elap:               1.3
 (Enter /opt/g16/l601.exe)
 Leave Link  601 at Thu Jan  9 21:25:11 2025, MaxMem=   104857600 cpu:               0.0 elap:               0.0
 (Enter /opt/g16/l716.exe)
 Dipole        = 0.00000000D+00 0.00000000D+00 0.00000000D+00
 ***** Axes restored to original set *****
 -------------------------------------------------------------------
 Center     Atomic                   Forces (Hartrees/Bohr)
 Number     Number              X              Y              Z
 -------------------------------------------------------------------
      1        8           0.000000000    0.000000000    0.000185923
      2        1           0.000000000   -0.000084113   -0.000092962
      3        1          -0.000000000    0.000084113   -0.000092962
 -------------------------------------------------------------------
 Cartesian Forces:  Max     0.000185923 RMS     0.000085635
 Leave Link  716 at Thu Jan  9 21:25:11 2025, MaxMem=   104857600 cpu:               0.0 elap:               0.0
 (Enter /opt/g16/l106.exe)
 NDeriv=      9 NFrqRd=  0 NDerD0=      0 MskFDP=       0 MskDFD=       0 MskDF0=       0
 At 1st pt F.D. properties file   721 does not exist.
 At 1st pt F.D. properties file   722 does not exist.
 D2Numr ... symmetry will be used.
 Leave Link  106 at Thu Jan  9 21:25:11 2025, MaxMem=   104857600 cpu:               0.0 elap:               0.0
 (Enter /opt/g16/l301.exe)
 Standard basis: STO-3G (5D, 7F)
 Ernie: Thresh=  0.10000D-02 Tol=  0.10000D-05 Strict=F.
     7 basis functions,    21 primitive gaussians,     7 cartesian basis functions
     5 alpha electrons        5 beta electrons
       nuclear repulsion energy         9.2346658292 Hartrees.
 IExCor=    0 DFT=F Ex=HF Corr=None ExCW=0 ScaHFX=  1.000000
 ScaDFX=  1.000000  1.000000  1.000000  1.000000 ScalE2=  1.000000  1.000000
 IRadAn=      5 IRanWt=     -1 IRanGd=            0 ICorTp=0 IEmpDi=  4
 NAtoms=    3 NActive=    3 NUniq=    3 SFac= 1.00D+00 NAtFMM=   60 NAOKFM=F Big=F
 Integral buffers will be    131072 words long.
 Raffenetti 1 integral format.
 Two-electron integral symmetry is turned off.
 Leave Link  301 at Thu Jan  9 21:25:11 2025, MaxMem=   104857600 cpu:               0.1 elap:               0.0
 (Enter /opt/g16/l402.exe)
 External calculation of energy and first derivatives.
 Running external command "python3 -u ../../src/reaxff_chon2017.py R"
         input file       "/home/jh-li/scratch/g16/Gau-1277591.EIn"
         output file      "/home/jh-li/scratch/g16/Gau-1277591.EOu"
         message file     "/home/jh-li/scratch/g16/Gau-1277591.EMs"
         fchk file        "/home/jh-li/scratch/g16/Gau-1277591.EFC"
         mat. el file     "/home/jh-li/scratch/g16/Gau-1277591.EUF"
 Recovered energy=-0.386433246376     dipole=      0.000000000000      0.000000000000      0.000000000000
 Energy=   -0.386433246     NIter=   0.
 Dipole moment=       0.000000       0.000000       0.000000
 Leave Link  402 at Thu Jan  9 21:25:12 2025, MaxMem=   104857600 cpu:               0.0 elap:               1.3
 (Enter /opt/g16/l601.exe)
 Leave Link  601 at Thu Jan  9 21:25:12 2025, MaxMem=   104857600 cpu:               0.0 elap:               0.0
 (Enter /opt/g16/l716.exe)
 Dipole        = 0.00000000D+00 0.00000000D+00 0.00000000D+00
 -------------------------------------------------------------------
 Center     Atomic                   Forces (Hartrees/Bohr)
 Number     Number              X              Y              Z
 -------------------------------------------------------------------
      1        8          -0.000000318   -0.000000000   -0.000186561
      2        1           0.000000159   -0.000084329    0.000093281
      3        1           0.000000159    0.000084329    0.000093281
 -------------------------------------------------------------------
 Cartesian Forces:  Max     0.000186561 RMS     0.000085914
 Leave Link  716 at Thu Jan  9 21:25:12 2025, MaxMem=   104857600 cpu:               0.0 elap:               0.0
 (Enter /opt/g16/l106.exe)
 NDeriv=      9 NFrqRd=  0 NDerD0=      0 MskFDP=       0 MskDFD=       0 MskDF0=       0
 Re-enter D2Numr:  atom   1 IXYZ=1 step-up   number 1
 Skip step-back as it is equivalent to step-up.
 Leave Link  106 at Thu Jan  9 21:25:12 2025, MaxMem=   104857600 cpu:               0.1 elap:               0.1
 (Enter /opt/g16/l301.exe)
 Standard basis: STO-3G (5D, 7F)
 Ernie: Thresh=  0.10000D-02 Tol=  0.10000D-05 Strict=F.
     7 basis functions,    21 primitive gaussians,     7 cartesian basis functions
     5 alpha electrons        5 beta electrons
       nuclear repulsion energy         9.2346749498 Hartrees.
 IExCor=    0 DFT=F Ex=HF Corr=None ExCW=0 ScaHFX=  1.000000
 ScaDFX=  1.000000  1.000000  1.000000  1.000000 ScalE2=  1.000000  1.000000
 IRadAn=      5 IRanWt=     -1 IRanGd=            0 ICorTp=0 IEmpDi=  4
 NAtoms=    3 NActive=    3 NUniq=    3 SFac= 1.00D+00 NAtFMM=   60 NAOKFM=F Big=F
 Integral buffers will be    131072 words long.
 Raffenetti 1 integral format.
 Two-electron integral symmetry is turned off.
 Leave Link  301 at Thu Jan  9 21:25:12 2025, MaxMem=   104857600 cpu:               0.0 elap:               0.0
 (Enter /opt/g16/l402.exe)
 External calculation of energy and first derivatives.
 Running external command "python3 -u ../../src/reaxff_chon2017.py R"
         input file       "/home/jh-li/scratch/g16/Gau-1277591.EIn"
         output file      "/home/jh-li/scratch/g16/Gau-1277591.EOu"
         message file     "/home/jh-li/scratch/g16/Gau-1277591.EMs"
         fchk file        "/home/jh-li/scratch/g16/Gau-1277591.EFC"
         mat. el file     "/home/jh-li/scratch/g16/Gau-1277591.EUF"
 Recovered energy=-0.386432497383     dipole=      0.000000000000      0.000000000000      0.000000000000
 Energy=   -0.386432497     NIter=   0.
 Dipole moment=       0.000000       0.000000       0.000000
 Leave Link  402 at Thu Jan  9 21:25:14 2025, MaxMem=   104857600 cpu:               0.0 elap:               1.3
 (Enter /opt/g16/l601.exe)
 Leave Link  601 at Thu Jan  9 21:25:14 2025, MaxMem=   104857600 cpu:               0.0 elap:               0.0
 (Enter /opt/g16/l716.exe)
 Dipole        = 0.00000000D+00 0.00000000D+00 0.00000000D+00
 -------------------------------------------------------------------
 Center     Atomic                   Forces (Hartrees/Bohr)
 Number     Number              X              Y              Z
 -------------------------------------------------------------------
      1        8          -0.000000000   -0.000796547   -0.000184984
      2        1          -0.000000000    0.000314516   -0.000217909
      3        1          -0.000000000    0.000482032    0.000402893
 -------------------------------------------------------------------
 Cartesian Forces:  Max     0.000796547 RMS     0.000366635
 Leave Link  716 at Thu Jan  9 21:25:14 2025, MaxMem=   104857600 cpu:               0.0 elap:               0.0
 (Enter /opt/g16/l106.exe)
 NDeriv=      9 NFrqRd=  0 NDerD0=      0 MskFDP=       0 MskDFD=       0 MskDF0=       0
 Re-enter D2Numr:  atom   1 IXYZ=2 step-up   number 1
 Skip step-back as it is equivalent to step-up.
 Leave Link  106 at Thu Jan  9 21:25:14 2025, MaxMem=   104857600 cpu:               0.1 elap:               0.1
 (Enter /opt/g16/l301.exe)
 Standard basis: STO-3G (5D, 7F)
 Ernie: Thresh=  0.10000D-02 Tol=  0.10000D-05 Strict=F.
     7 basis functions,    21 primitive gaussians,     7 cartesian basis functions
     5 alpha electrons        5 beta electrons
       nuclear repulsion energy         9.2289414002 Hartrees.
 IExCor=    0 DFT=F Ex=HF Corr=None ExCW=0 ScaHFX=  1.000000
 ScaDFX=  1.000000  1.000000  1.000000  1.000000 ScalE2=  1.000000  1.000000
 IRadAn=      5 IRanWt=     -1 IRanGd=            0 ICorTp=0 IEmpDi=  4
 NAtoms=    3 NActive=    3 NUniq=    3 SFac= 1.00D+00 NAtFMM=   60 NAOKFM=F Big=F
 Integral buffers will be    131072 words long.
 Raffenetti 1 integral format.
 Two-electron integral symmetry is turned off.
 Leave Link  301 at Thu Jan  9 21:25:14 2025, MaxMem=   104857600 cpu:               0.1 elap:               0.0
 (Enter /opt/g16/l402.exe)
 External calculation of energy and first derivatives.
 Running external command "python3 -u ../../src/reaxff_chon2017.py R"
         input file       "/home/jh-li/scratch/g16/Gau-1277591.EIn"
         output file      "/home/jh-li/scratch/g16/Gau-1277591.EOu"
         message file     "/home/jh-li/scratch/g16/Gau-1277591.EMs"
         fchk file        "/home/jh-li/scratch/g16/Gau-1277591.EFC"
         mat. el file     "/home/jh-li/scratch/g16/Gau-1277591.EUF"
 Recovered energy=-0.386431907750     dipole=      0.000000000000      0.000000000000      0.000000000000
 Energy=   -0.386431908     NIter=   0.
 Dipole moment=       0.000000       0.000000       0.000000
 Leave Link  402 at Thu Jan  9 21:25:15 2025, MaxMem=   104857600 cpu:               0.0 elap:               1.3
 (Enter /opt/g16/l601.exe)
 Leave Link  601 at Thu Jan  9 21:25:15 2025, MaxMem=   104857600 cpu:               0.0 elap:               0.0
 (Enter /opt/g16/l716.exe)
 Dipole        = 0.00000000D+00 0.00000000D+00 0.00000000D+00
 -------------------------------------------------------------------
 Center     Atomic                   Forces (Hartrees/Bohr)
 Number     Number              X              Y              Z
 -------------------------------------------------------------------
      1        8          -0.000000000    0.000000000   -0.000934417
      2        1          -0.000000000   -0.000336818    0.000467210
      3        1          -0.000000000    0.000336818    0.000467210
 -------------------------------------------------------------------
 Cartesian Forces:  Max     0.000934417 RMS     0.000413198
 Leave Link  716 at Thu Jan  9 21:25:15 2025, MaxMem=   104857600 cpu:               0.0 elap:               0.0
 (Enter /opt/g16/l106.exe)
 NDeriv=      9 NFrqRd=  0 NDerD0=      0 MskFDP=       0 MskDFD=       0 MskDF0=       0
 Re-enter D2Numr:  atom   1 IXYZ=3 step-up   number 1
 Leave Link  106 at Thu Jan  9 21:25:15 2025, MaxMem=   104857600 cpu:               0.1 elap:               0.1
 (Enter /opt/g16/l301.exe)
 Standard basis: STO-3G (5D, 7F)
 Ernie: Thresh=  0.10000D-02 Tol=  0.10000D-05 Strict=F.
     7 basis functions,    21 primitive gaussians,     7 cartesian basis functions
     5 alpha electrons        5 beta electrons
       nuclear repulsion energy         9.2404013470 Hartrees.
 IExCor=    0 DFT=F Ex=HF Corr=None ExCW=0 ScaHFX=  1.000000
 ScaDFX=  1.000000  1.000000  1.000000  1.000000 ScalE2=  1.000000  1.000000
 IRadAn=      5 IRanWt=     -1 IRanGd=            0 ICorTp=0 IEmpDi=  4
 NAtoms=    3 NActive=    3 NUniq=    3 SFac= 1.00D+00 NAtFMM=   60 NAOKFM=F Big=F
 Integral buffers will be    131072 words long.
 Raffenetti 1 integral format.
 Two-electron integral symmetry is turned off.
 Leave Link  301 at Thu Jan  9 21:25:15 2025, MaxMem=   104857600 cpu:               0.1 elap:               0.1
 (Enter /opt/g16/l402.exe)
 External calculation of energy and first derivatives.
 Running external command "python3 -u ../../src/reaxff_chon2017.py R"
         input file       "/home/jh-li/scratch/g16/Gau-1277591.EIn"
         output file      "/home/jh-li/scratch/g16/Gau-1277591.EOu"
         message file     "/home/jh-li/scratch/g16/Gau-1277591.EMs"
         fchk file        "/home/jh-li/scratch/g16/Gau-1277591.EFC"
         mat. el file     "/home/jh-li/scratch/g16/Gau-1277591.EUF"
 Recovered energy=-0.386433182632     dipole=      0.000000000000      0.000000000000      0.000000000000
 Energy=   -0.386433183     NIter=   0.
 Dipole moment=       0.000000       0.000000       0.000000
 Leave Link  402 at Thu Jan  9 21:25:17 2025, MaxMem=   104857600 cpu:               0.0 elap:               1.3
 (Enter /opt/g16/l601.exe)
 Leave Link  601 at Thu Jan  9 21:25:17 2025, MaxMem=   104857600 cpu:               0.0 elap:               0.0
 (Enter /opt/g16/l716.exe)
 Dipole        = 0.00000000D+00 0.00000000D+00 0.00000000D+00
 -------------------------------------------------------------------
 Center     Atomic                   Forces (Hartrees/Bohr)
 Number     Number              X              Y              Z
 -------------------------------------------------------------------
      1        8          -0.000000000   -0.000000000    0.000562067
      2        1          -0.000000000    0.000169532   -0.000281033
      3        1          -0.000000000   -0.000169532   -0.000281033
 -------------------------------------------------------------------
 Cartesian Forces:  Max     0.000562067 RMS     0.000242982
 Leave Link  716 at Thu Jan  9 21:25:17 2025, MaxMem=   104857600 cpu:               0.0 elap:               0.0
 (Enter /opt/g16/l106.exe)
 NDeriv=      9 NFrqRd=  0 NDerD0=      0 MskFDP=       0 MskDFD=       0 MskDF0=       0
 Re-enter D2Numr:  atom   1 IXYZ=3 step-down number 1
 Finish atom      1 at Thu Jan  9 21:25:17 2025
 Leave Link  106 at Thu Jan  9 21:25:17 2025, MaxMem=   104857600 cpu:               0.1 elap:               0.1
 (Enter /opt/g16/l301.exe)
 Standard basis: STO-3G (5D, 7F)
 Ernie: Thresh=  0.10000D-02 Tol=  0.10000D-05 Strict=F.
     7 basis functions,    21 primitive gaussians,     7 cartesian basis functions
     5 alpha electrons        5 beta electrons
       nuclear repulsion energy         9.2346681955 Hartrees.
 IExCor=    0 DFT=F Ex=HF Corr=None ExCW=0 ScaHFX=  1.000000
 ScaDFX=  1.000000  1.000000  1.000000  1.000000 ScalE2=  1.000000  1.000000
 IRadAn=      5 IRanWt=     -1 IRanGd=            0 ICorTp=0 IEmpDi=  4
 NAtoms=    3 NActive=    3 NUniq=    3 SFac= 1.00D+00 NAtFMM=   60 NAOKFM=F Big=F
 Integral buffers will be    131072 words long.
 Raffenetti 1 integral format.
 Two-electron integral symmetry is turned off.
 Leave Link  301 at Thu Jan  9 21:25:17 2025, MaxMem=   104857600 cpu:               0.0 elap:               0.0
 (Enter /opt/g16/l402.exe)
 External calculation of energy and first derivatives.
 Running external command "python3 -u ../../src/reaxff_chon2017.py R"
         input file       "/home/jh-li/scratch/g16/Gau-1277591.EIn"
         output file      "/home/jh-li/scratch/g16/Gau-1277591.EOu"
         message file     "/home/jh-li/scratch/g16/Gau-1277591.EMs"
         fchk file        "/home/jh-li/scratch/g16/Gau-1277591.EFC"
         mat. el file     "/home/jh-li/scratch/g16/Gau-1277591.EUF"
 Recovered energy=-0.386433246376     dipole=      0.000000000000      0.000000000000      0.000000000000
 Energy=   -0.386433246     NIter=   0.
 Dipole moment=       0.000000       0.000000       0.000000
 Leave Link  402 at Thu Jan  9 21:25:18 2025, MaxMem=   104857600 cpu:               0.0 elap:               1.3
 (Enter /opt/g16/l601.exe)
 Leave Link  601 at Thu Jan  9 21:25:18 2025, MaxMem=   104857600 cpu:               0.0 elap:               0.0
 (Enter /opt/g16/l716.exe)
 Dipole        = 0.00000000D+00 0.00000000D+00 0.00000000D+00
 -------------------------------------------------------------------
 Center     Atomic                   Forces (Hartrees/Bohr)
 Number     Number              X              Y              Z
 -------------------------------------------------------------------
      1        8           0.000000159    0.000000269   -0.000186167
      2        1          -0.000000136   -0.000084401    0.000093188
      3        1          -0.000000023    0.000084132    0.000092979
 -------------------------------------------------------------------
 Cartesian Forces:  Max     0.000186167 RMS     0.000085757
 Leave Link  716 at Thu Jan  9 21:25:18 2025, MaxMem=   104857600 cpu:               0.0 elap:               0.0
 (Enter /opt/g16/l106.exe)
 NDeriv=      9 NFrqRd=  0 NDerD0=      0 MskFDP=       0 MskDFD=       0 MskDF0=       0
 Re-enter D2Numr:  atom   2 IXYZ=1 step-up   number 1
 Skip step-back as it is equivalent to step-up.
 Leave Link  106 at Thu Jan  9 21:25:18 2025, MaxMem=   104857600 cpu:               0.1 elap:               0.1
 (Enter /opt/g16/l301.exe)
 Standard basis: STO-3G (5D, 7F)
 Ernie: Thresh=  0.10000D-02 Tol=  0.10000D-05 Strict=F.
     7 basis functions,    21 primitive gaussians,     7 cartesian basis functions
     5 alpha electrons        5 beta electrons
       nuclear repulsion energy         9.2307642763 Hartrees.
 IExCor=    0 DFT=F Ex=HF Corr=None ExCW=0 ScaHFX=  1.000000
 ScaDFX=  1.000000  1.000000  1.000000  1.000000 ScalE2=  1.000000  1.000000
 IRadAn=      5 IRanWt=     -1 IRanGd=            0 ICorTp=0 IEmpDi=  4
 NAtoms=    3 NActive=    3 NUniq=    3 SFac= 1.00D+00 NAtFMM=   60 NAOKFM=F Big=F
 Integral buffers will be    131072 words long.
 Raffenetti 1 integral format.
 Two-electron integral symmetry is turned off.
 Leave Link  301 at Thu Jan  9 21:25:18 2025, MaxMem=   104857600 cpu:               0.0 elap:               0.1
 (Enter /opt/g16/l402.exe)
 External calculation of energy and first derivatives.
 Running external command "python3 -u ../../src/reaxff_chon2017.py R"
         input file       "/home/jh-li/scratch/g16/Gau-1277591.EIn"
         output file      "/home/jh-li/scratch/g16/Gau-1277591.EOu"
         message file     "/home/jh-li/scratch/g16/Gau-1277591.EMs"
         fchk file        "/home/jh-li/scratch/g16/Gau-1277591.EFC"
         mat. el file     "/home/jh-li/scratch/g16/Gau-1277591.EUF"
 Recovered energy=-0.386432529255     dipole=      0.000000000000      0.000000000000      0.000000000000
 Energy=   -0.386432529     NIter=   0.
 Dipole moment=       0.000000       0.000000       0.000000
 Leave Link  402 at Thu Jan  9 21:25:20 2025, MaxMem=   104857600 cpu:               0.0 elap:               1.3
 (Enter /opt/g16/l601.exe)
 Leave Link  601 at Thu Jan  9 21:25:20 2025, MaxMem=   104857600 cpu:               0.0 elap:               0.0
 (Enter /opt/g16/l716.exe)
 Dipole        = 0.00000000D+00 0.00000000D+00 0.00000000D+00
 -------------------------------------------------------------------
 Center     Atomic                   Forces (Hartrees/Bohr)
 Number     Number              X              Y              Z
 -------------------------------------------------------------------
      1        8          -0.000000000    0.000397920   -0.000438556
      2        1          -0.000000000   -0.000581764    0.000374153
      3        1          -0.000000000    0.000183844    0.000064403
 -------------------------------------------------------------------
 Cartesian Forces:  Max     0.000581764 RMS     0.000310386
 Leave Link  716 at Thu Jan  9 21:25:20 2025, MaxMem=   104857600 cpu:               0.0 elap:               0.0
 (Enter /opt/g16/l106.exe)
 NDeriv=      9 NFrqRd=  0 NDerD0=      0 MskFDP=       0 MskDFD=       0 MskDF0=       0
 Re-enter D2Numr:  atom   2 IXYZ=2 step-up   number 1
 Leave Link  106 at Thu Jan  9 21:25:20 2025, MaxMem=   104857600 cpu:               0.1 elap:               0.1
 (Enter /opt/g16/l301.exe)
 Standard basis: STO-3G (5D, 7F)
 Ernie: Thresh=  0.10000D-02 Tol=  0.10000D-05 Strict=F.
     7 basis functions,    21 primitive gaussians,     7 cartesian basis functions
     5 alpha electrons        5 beta electrons
       nuclear repulsion energy         9.2385817026 Hartrees.
 IExCor=    0 DFT=F Ex=HF Corr=None ExCW=0 ScaHFX=  1.000000
 ScaDFX=  1.000000  1.000000  1.000000  1.000000 ScalE2=  1.000000  1.000000
 IRadAn=      5 IRanWt=     -1 IRanGd=            0 ICorTp=0 IEmpDi=  4
 NAtoms=    3 NActive=    3 NUniq=    3 SFac= 1.00D+00 NAtFMM=   60 NAOKFM=F Big=F
 Integral buffers will be    131072 words long.
 Raffenetti 1 integral format.
 Two-electron integral symmetry is turned off.
 Leave Link  301 at Thu Jan  9 21:25:20 2025, MaxMem=   104857600 cpu:               0.0 elap:               0.0
 (Enter /opt/g16/l402.exe)
 External calculation of energy and first derivatives.
 Running external command "python3 -u ../../src/reaxff_chon2017.py R"
         input file       "/home/jh-li/scratch/g16/Gau-1277591.EIn"
         output file      "/home/jh-li/scratch/g16/Gau-1277591.EOu"
         message file     "/home/jh-li/scratch/g16/Gau-1277591.EMs"
         fchk file        "/home/jh-li/scratch/g16/Gau-1277591.EFC"
         mat. el file     "/home/jh-li/scratch/g16/Gau-1277591.EUF"
 Recovered energy=-0.386433039207     dipole=      0.000000000000      0.000000000000      0.000000000000
 Energy=   -0.386433039     NIter=   0.
 Dipole moment=       0.000000       0.000000       0.000000
 Leave Link  402 at Thu Jan  9 21:25:21 2025, MaxMem=   104857600 cpu:               0.0 elap:               1.3
 (Enter /opt/g16/l601.exe)
 Leave Link  601 at Thu Jan  9 21:25:21 2025, MaxMem=   104857600 cpu:               0.0 elap:               0.0
 (Enter /opt/g16/l716.exe)
 Dipole        = 0.00000000D+00 0.00000000D+00 0.00000000D+00
 -------------------------------------------------------------------
 Center     Atomic                   Forces (Hartrees/Bohr)
 Number     Number              X              Y              Z
 -------------------------------------------------------------------
      1        8          -0.000000000   -0.000398629    0.000067795
      2        1          -0.000000000    0.000414370   -0.000189424
      3        1          -0.000000000   -0.000015741    0.000121629
 -------------------------------------------------------------------
 Cartesian Forces:  Max     0.000414370 RMS     0.000207130
 Leave Link  716 at Thu Jan  9 21:25:21 2025, MaxMem=   104857600 cpu:               0.0 elap:               0.0
 (Enter /opt/g16/l106.exe)
 NDeriv=      9 NFrqRd=  0 NDerD0=      0 MskFDP=       0 MskDFD=       0 MskDF0=       0
 Re-enter D2Numr:  atom   2 IXYZ=2 step-down number 1
 Leave Link  106 at Thu Jan  9 21:25:21 2025, MaxMem=   104857600 cpu:               0.1 elap:               0.1
 (Enter /opt/g16/l301.exe)
 Standard basis: STO-3G (5D, 7F)
 Ernie: Thresh=  0.10000D-02 Tol=  0.10000D-05 Strict=F.
     7 basis functions,    21 primitive gaussians,     7 cartesian basis functions
     5 alpha electrons        5 beta electrons
       nuclear repulsion energy         9.2375359544 Hartrees.
 IExCor=    0 DFT=F Ex=HF Corr=None ExCW=0 ScaHFX=  1.000000
 ScaDFX=  1.000000  1.000000  1.000000  1.000000 ScalE2=  1.000000  1.000000
 IRadAn=      5 IRanWt=     -1 IRanGd=            0 ICorTp=0 IEmpDi=  4
 NAtoms=    3 NActive=    3 NUniq=    3 SFac= 1.00D+00 NAtFMM=   60 NAOKFM=F Big=F
 Integral buffers will be    131072 words long.
 Raffenetti 1 integral format.
 Two-electron integral symmetry is turned off.
 Leave Link  301 at Thu Jan  9 21:25:21 2025, MaxMem=   104857600 cpu:               0.1 elap:               0.1
 (Enter /opt/g16/l402.exe)
 External calculation of energy and first derivatives.
 Running external command "python3 -u ../../src/reaxff_chon2017.py R"
         input file       "/home/jh-li/scratch/g16/Gau-1277591.EIn"
         output file      "/home/jh-li/scratch/g16/Gau-1277591.EOu"
         message file     "/home/jh-li/scratch/g16/Gau-1277591.EMs"
         fchk file        "/home/jh-li/scratch/g16/Gau-1277591.EFC"
         mat. el file     "/home/jh-li/scratch/g16/Gau-1277591.EUF"
 Recovered energy=-0.386433278248     dipole=      0.000000000000      0.000000000000      0.000000000000
 Energy=   -0.386433278     NIter=   0.
 Dipole moment=       0.000000       0.000000       0.000000
 Leave Link  402 at Thu Jan  9 21:25:23 2025, MaxMem=   104857600 cpu:               0.0 elap:               1.3
 (Enter /opt/g16/l601.exe)
 Leave Link  601 at Thu Jan  9 21:25:23 2025, MaxMem=   104857600 cpu:               0.0 elap:               0.0
 (Enter /opt/g16/l716.exe)
 Dipole        = 0.00000000D+00 0.00000000D+00 0.00000000D+00
 -------------------------------------------------------------------
 Center     Atomic                   Forces (Hartrees/Bohr)
 Number     Number              X              Y              Z
 -------------------------------------------------------------------
      1        8          -0.000000000   -0.000310751    0.000188085
      2        1          -0.000000000    0.000198035   -0.000215053
      3        1          -0.000000000    0.000112715    0.000026968
 -------------------------------------------------------------------
 Cartesian Forces:  Max     0.000310751 RMS     0.000160153
 Leave Link  716 at Thu Jan  9 21:25:23 2025, MaxMem=   104857600 cpu:               0.0 elap:               0.0
 (Enter /opt/g16/l106.exe)
 NDeriv=      9 NFrqRd=  0 NDerD0=      0 MskFDP=       0 MskDFD=       0 MskDF0=       0
 Re-enter D2Numr:  atom   2 IXYZ=3 step-up   number 1
 Leave Link  106 at Thu Jan  9 21:25:23 2025, MaxMem=   104857600 cpu:               0.1 elap:               0.1
 (Enter /opt/g16/l301.exe)
 Standard basis: STO-3G (5D, 7F)
 Ernie: Thresh=  0.10000D-02 Tol=  0.10000D-05 Strict=F.
     7 basis functions,    21 primitive gaussians,     7 cartesian basis functions
     5 alpha electrons        5 beta electrons
       nuclear repulsion energy         9.2318059810 Hartrees.
 IExCor=    0 DFT=F Ex=HF Corr=None ExCW=0 ScaHFX=  1.000000
 ScaDFX=  1.000000  1.000000  1.000000  1.000000 ScalE2=  1.000000  1.000000
 IRadAn=      5 IRanWt=     -1 IRanGd=            0 ICorTp=0 IEmpDi=  4
 NAtoms=    3 NActive=    3 NUniq=    3 SFac= 1.00D+00 NAtFMM=   60 NAOKFM=F Big=F
 Integral buffers will be    131072 words long.
 Raffenetti 1 integral format.
 Two-electron integral symmetry is turned off.
 Leave Link  301 at Thu Jan  9 21:25:23 2025, MaxMem=   104857600 cpu:               0.0 elap:               0.0
 (Enter /opt/g16/l402.exe)
 External calculation of energy and first derivatives.
 Running external command "python3 -u ../../src/reaxff_chon2017.py R"
         input file       "/home/jh-li/scratch/g16/Gau-1277591.EIn"
         output file      "/home/jh-li/scratch/g16/Gau-1277591.EOu"
         message file     "/home/jh-li/scratch/g16/Gau-1277591.EMs"
         fchk file        "/home/jh-li/scratch/g16/Gau-1277591.EFC"
         mat. el file     "/home/jh-li/scratch/g16/Gau-1277591.EUF"
 Recovered energy=-0.386432640807     dipole=      0.000000000000      0.000000000000      0.000000000000
 Energy=   -0.386432641     NIter=   0.
 Dipole moment=       0.000000       0.000000       0.000000
 Leave Link  402 at Thu Jan  9 21:25:24 2025, MaxMem=   104857600 cpu:               0.0 elap:               1.3
 (Enter /opt/g16/l601.exe)
 Leave Link  601 at Thu Jan  9 21:25:24 2025, MaxMem=   104857600 cpu:               0.0 elap:               0.0
 (Enter /opt/g16/l716.exe)
 Dipole        = 0.00000000D+00 0.00000000D+00 0.00000000D+00
 -------------------------------------------------------------------
 Center     Atomic                   Forces (Hartrees/Bohr)
 Number     Number              X              Y              Z
 -------------------------------------------------------------------
      1        8          -0.000000000    0.000310051   -0.000560159
      2        1          -0.000000000   -0.000365539    0.000401192
      3        1          -0.000000000    0.000055489    0.000158967
 -------------------------------------------------------------------
 Cartesian Forces:  Max     0.000560159 RMS     0.000285352
 Leave Link  716 at Thu Jan  9 21:25:24 2025, MaxMem=   104857600 cpu:               0.0 elap:               0.0
 (Enter /opt/g16/l106.exe)
 NDeriv=      9 NFrqRd=  0 NDerD0=      0 MskFDP=       0 MskDFD=       0 MskDF0=       0
 Re-enter D2Numr:  atom   2 IXYZ=3 step-down number 1
 Finish atom      2 at Thu Jan  9 21:25:24 2025
 Maximum difference in off-diagonal FC elements:
 I=  9 J=  8 Difference=    6.6938131063D-07
 Max difference between analytic and numerical forces:
 I=  3 Difference=    1.5139646588D-04
 FinFTb:  IFil= 1 IFilD=  777 LTop=  1 LFil=         4 LTop1=  0 IMask=  1
 Leave Link  106 at Thu Jan  9 21:25:24 2025, MaxMem=   104857600 cpu:               0.1 elap:               0.1
 (Enter /opt/g16/l716.exe)
 Dipole        = 0.00000000D+00 0.00000000D+00 0.00000000D+00
 Full mass-weighted force constant matrix:
 Low frequencies ---   -1.3296   -0.0306   -0.0078   39.4694   43.2559   49.8435
 Low frequencies --- 1773.8099 3095.1320 3315.6769
 Diagonal vibrational polarizability:
        0.0000000       0.0000000       0.0000000
 Harmonic frequencies (cm**-1), IR intensities (KM/Mole), Raman scattering
 activities (A**4/AMU), depolarization ratios for plane and unpolarized
 incident light, reduced masses (AMU), force constants (mDyne/A),
 and normal coordinates:
                      1                      2                      3
                     A1                     B2                     A1
 Frequencies --   1773.8099              3095.1320              3315.6769
 Red. masses --      1.0823                 1.0815                 1.0455
 Frc consts  --      2.0064                 6.1041                 6.7722
 IR Inten    --      0.0000                 0.0000                 0.0000
  Atom  AN      X      Y      Z        X      Y      Z        X      Y      Z
     1   8    -0.00   0.00  -0.07    -0.00  -0.07   0.00     0.00   0.00   0.05
     2   1     0.00   0.43   0.56    -0.00   0.56  -0.43     0.00   0.58  -0.40
     3   1     0.00  -0.43   0.56     0.00   0.56   0.43    -0.00  -0.58  -0.40

 -------------------
 - Thermochemistry -
 -------------------
 Temperature   298.150 Kelvin.  Pressure   1.00000 Atm.
 Atom     1 has atomic number  8 and mass  15.99491
 Atom     2 has atomic number  1 and mass   1.00783
 Atom     3 has atomic number  1 and mass   1.00783
 Molecular mass:    18.01056 amu.
 Principal axes and moments of inertia in atomic units:
                           1         2         3
     Eigenvalues --     2.19579   4.06733   6.26312
           X            0.00000   0.00000   1.00000
           Y            1.00000   0.00000   0.00000
           Z            0.00000   1.00000   0.00000
 This molecule is an asymmetric top.
 Rotational symmetry number  2.
 Rotational temperatures (Kelvin)     39.44537    21.29506    13.82920
 Rotational constants (GHZ):         821.90815   443.71696   288.15372
 Zero-point vibrational energy      48954.9 (Joules/Mol)
                                   11.70050 (Kcal/Mol)
 Vibrational temperatures:   2552.12  4453.20  4770.52
          (Kelvin)
 
 Zero-point correction=                           0.018646 (Hartree/Particle)
 Thermal correction to Energy=                    0.021480
 Thermal correction to Enthalpy=                  0.022424
 Thermal correction to Gibbs Free Energy=         0.001026
 Sum of electronic and zero-point Energies=             -0.367787
 Sum of electronic and thermal Energies=                -0.364953
 Sum of electronic and thermal Enthalpies=              -0.364009
 Sum of electronic and thermal Free Energies=           -0.385407
 
                     E (Thermal)             CV                S
                      KCal/Mol        Cal/Mol-Kelvin    Cal/Mol-Kelvin
 Total                   13.479              5.990             45.036
 Electronic               0.000              0.000              0.000
 Translational            0.889              2.981             34.608
 Rotational               0.889              2.981             10.424
 Vibrational             11.701              0.028              0.004
                       Q            Log10(Q)             Ln(Q)
 Total Bot       0.337259D+00         -0.472037         -1.086905
 Total V=0       0.127201D+09          8.104490         18.661277
 Vib (Bot)       0.265190D-08         -8.576443        -19.747990
 Vib (V=0)       0.100019D+01          0.000083          0.000192
 Electronic      0.100000D+01          0.000000          0.000000
 Translational   0.300431D+07          6.477745         14.915559
 Rotational      0.423313D+02          1.626661          3.745526
 
                                                         Title Card Required
                                                             IR Spectrum
 
     3        3                                                  1                                                                   
     3        0                                                  7                                                                   
     1        9                                                  7                                                                   
     6        5                                                  4                                                                   
 
                                                                                                                                     
                                                                                                                                     
                                                                                                                                     
                                                                                                                                     
                                                                                                                                     
                                                                                                                                     
                                                                                                                                     
                                                                                                                                     
                                                                                                                                     
                                                                                                                                     
                                                                                                                                     
                                                                                                                                     
                                                                                                                                     
                                                                                                                                     
                                                                                                                                     
                                                                                                                                     
                                                                                                                                     
                                                                                                                                     
                                                                                                                                     
                                                                                                                                     
 
 ***** Axes restored to original set *****
 -------------------------------------------------------------------
 Center     Atomic                   Forces (Hartrees/Bohr)
 Number     Number              X              Y              Z
 -------------------------------------------------------------------
      1        8           0.000000000    0.000000000    0.000185923
      2        1           0.000000000   -0.000084113   -0.000092962
      3        1          -0.000000000    0.000084113   -0.000092962
 -------------------------------------------------------------------
 Cartesian Forces:  Max     0.000185923 RMS     0.000085635
 Force constants in Cartesian coordinates: 
                1             2             3             4             5 
      1  0.168446D-03
      2  0.000000D+00  0.421515D+00
      3  0.000000D+00  0.000000D+00  0.395952D+00
      4 -0.841812D-04  0.000000D+00  0.000000D+00  0.717773D-04
      5  0.000000D+00 -0.210758D+00 -0.133974D+00  0.000000D+00  0.263566D+00
      6  0.000000D+00 -0.164257D+00 -0.197977D+00  0.000000D+00  0.149116D+00
      7 -0.841812D-04  0.000000D+00  0.000000D+00  0.123621D-04  0.000000D+00
      8  0.000000D+00 -0.210758D+00  0.133974D+00  0.000000D+00 -0.528079D-01
      9  0.000000D+00  0.164257D+00 -0.197977D+00  0.000000D+00 -0.151414D-01
                6             7             8             9 
      6  0.163051D+00
      7  0.000000D+00  0.717773D-04
      8  0.151414D-01  0.000000D+00  0.263566D+00
      9  0.349253D-01  0.000000D+00 -0.149116D+00  0.163051D+00
 Leave Link  716 at Thu Jan  9 21:25:24 2025, MaxMem=   104857600 cpu:               0.0 elap:               0.0
 (Enter /opt/g16/l103.exe)

 GradGradGradGradGradGradGradGradGradGradGradGradGradGradGradGradGradGrad
 Berny optimization.
 Search for a local minimum.
 Step number   1 out of a maximum of    2
 All quantities printed in internal units (Hartrees-Bohrs-Radians)
 Second derivative matrix not updated -- analytic derivatives used.
 The second derivative matrix:
                          X1        Y1        Z1        X2        Y2
           X1           0.00017
           Y1          -0.00000   0.42151
           Z1           0.00000   0.00000   0.39595
           X2          -0.00008   0.00000   0.00000   0.00007
           Y2           0.00000  -0.21076  -0.13397  -0.00000   0.26357
           Z2           0.00000  -0.16426  -0.19798  -0.00000   0.14912
           X3          -0.00008   0.00000  -0.00000   0.00001   0.00000
           Y3           0.00000  -0.21076   0.13397   0.00000  -0.05281
           Z3          -0.00000   0.16426  -0.19798   0.00000  -0.01514
                          Z2        X3        Y3        Z3
           Z2           0.16305
           X3          -0.00000   0.00007
           Y3           0.01514  -0.00000   0.26357
           Z3           0.03493   0.00000  -0.14912   0.16305
 ITU=  0
     Eigenvalues ---    0.17190   0.60603   0.60785
 Angle between quadratic step and forces=  27.00 degrees.
 ClnCor:  largest displacement from symmetrization is 2.26D-18 for atom     3.
 Linear search not attempted -- first point.
 ClnCor:  largest displacement from symmetrization is 1.97D-31 for atom     2.
 B after Tr=     0.000000    0.000000    0.000102
         Rot=    1.000000   -0.000000   -0.000000    0.000000 Ang=   0.00 deg.
 Variable       Old X    -DE/DX   Delta X   Delta X   Delta X     New X
                                 (Linear)    (Quad)   (Total)
    X1       -0.00000   0.00000   0.00000   0.00000   0.00000  -0.00000
    Y1       -0.00000   0.00000   0.00000   0.00000   0.00000  -0.00000
    Z1       -0.24958   0.00019   0.00000   0.00017   0.00027  -0.24931
    X2       -0.00000   0.00000   0.00000   0.00000   0.00000  -0.00000
    Y2        1.42052  -0.00008   0.00000  -0.00009  -0.00009   1.42042
    Z2        0.85796  -0.00009   0.00000  -0.00024  -0.00014   0.85783
    X3        0.00000  -0.00000   0.00000  -0.00000  -0.00000   0.00000
    Y3       -1.42052   0.00008   0.00000   0.00009   0.00009  -1.42042
    Z3        0.85796  -0.00009   0.00000  -0.00024  -0.00014   0.85783
         Item               Value     Threshold  Converged?
 Maximum Force            0.000186     0.000450     YES
 RMS     Force            0.000086     0.000300     YES
 Maximum Displacement     0.000271     0.001800     YES
 RMS     Displacement     0.000119     0.001200     YES
 Predicted change in Energy=-4.564280D-08
 Optimization completed.
    -- Stationary point found.
 GradGradGradGradGradGradGradGradGradGradGradGradGradGradGradGradGradGrad

 Leave Link  103 at Thu Jan  9 21:25:24 2025, MaxMem=   104857600 cpu:               0.0 elap:               0.0
 (Enter /opt/g16/l9999.exe)
 1\1\GINC-DESKTOP-1D9QDE1\Freq\RExternal='python3 -u ../../src/reaxff_c
 hon2017.py'\ZDO\H2O1\JH-LI\09-Jan-2025\0\\#p external="python3 -u ../.
 ./src/reaxff_chon2017.py" freq=num geom=allcheck\\Title Card Required\
 \0,1\O,0.,0.,-0.132072\H,0.,0.751706,0.454015\H,0.,-0.751706,0.454015\
 \Version=ES64L-G16RevA.03\HF=-0.3864332\RMSD=0.000e+00\RMSF=8.564e-05\
 ZeroPoint=0.0186459\Thermal=0.02148\Dipole=0.,0.,0.\DipoleDeriv=0.,0.,
 0.,0.,0.,0.,0.,0.,0.,0.,0.,0.,0.,0.,0.,0.,0.,0.,0.,0.,0.,0.,0.,0.,0.,0
 .,0.\PG=C02V [C2(O1),SGV(H2)]\NImag=0\\0.00016845,0.,0.42151478,0.,0.,
 0.39595245,-0.00008418,0.,0.,0.00007178,0.,-0.21075750,-0.13397439,0.,
 0.26356555,0.,-0.16425725,-0.19797678,0.,0.14911574,0.16305148,-0.0000
 8418,0.,0.,0.00001236,0.,0.,0.00007178,0.,-0.21075750,0.13397439,0.,-0
 .05280794,0.01514142,0.,0.26356555,0.,0.16425725,-0.19797678,0.,-0.015
 14142,0.03492526,0.,-0.14911574,0.16305148\\0.,0.,-0.00018592,0.,0.000
 08411,0.00009296,0.,-0.00008411,0.00009296\\\@


 COMMON SENSE IS NOT SO COMMON.   -- VOLTAIRE
 Job cpu time:       0 days  0 hours  0 minutes  2.1 seconds.
 Elapsed time:       0 days  0 hours  0 minutes 14.7 seconds.
 File lengths (MBytes):  RWF=     43 Int=      0 D2E=      0 Chk=     38 Scr=      1
 Normal termination of Gaussian 16 at Thu Jan  9 21:25:24 2025.
